 37 displacements needed.
 1 2 3 4 5 6 7 8 9 10 11 12 13 14 15 16 17 18 19 20 21 22 23 24 25 26 27 28 29 30 31 32 33 34 35 36 37
-1058.58779055
e
                              Psi4 1.0.0 Driver

                          Git: Rev {master} 6a9a71b 

    J. M. Turney, A. C. Simmonett, R. M. Parrish, E. G. Hohenstein,
    F. A. Evangelista, J. T. Fermann, B. J. Mintz, L. A. Burns, J. J. Wilke,
    M. L. Abrams, N. J. Russ, M. L. Leininger, C. L. Janssen, E. T. Seidl,
    W. D. Allen, H. F. Schaefer, R. A. King, E. F. Valeev, C. D. Sherrill,
    and T. D. Crawford, WIREs Comput. Mol. Sci. 2, 556-565 (2012)
    (doi: 10.1002/wcms.93)

                         Additional Contributions by
    A. E. DePrince, U. Bozkaya, A. Yu. Sokolov, D. G. A. Smith, R. Di Remigio,
    R. M. Richard, J. F. Gonthier, H. R. McAlexander, M. Saitow, and
    B. P. Pritchard
    -----------------------------------------------------------------------


    Psi4 started on: Sun Apr  2 12:10:52 2017

    Process ID:   6278
    PSI4DATADIR: /Users/ruheedcunha/psi4conda/share/psi4
    Memory level set to 256.000 MB

  ==> Input File <==

--------------------------------------------------------------------------
#! Sample HF/cc-pVDZ H2O computation

memory 250 mb

molecule benzene {
C    0.00000000     2.62065942     0.00000000
C   -2.26955763     1.31032971     0.00000000
C   -2.26955763    -1.31032971     0.00000000
C    0.00000000    -2.62065942     0.00000000
C    2.26955763    -1.31032971     0.00000000 
C    2.26955763     1.31032971     0.00000000
H   -4.04130651     2.33324940     0.00000000
H   -4.04130651    -2.33324940     0.00000000
H    0.00000000    -4.66649880     0.00000000
H    4.04130651    -2.33324940     0.00000000
H    4.04130651     2.33324940     0.00000000
H    0.00000000     4.66649880     0.00000000
}

set basis cc-pVDZ
set hessian_write on
H, wfn = frequencies('hf', return_wfn=True)
print wfn.frequencies().get(0, 0)
wfn.hessian().print_out()

--------------------------------------------------------------------------
/Users/ruheedcunha/psi4conda/lib/python2.7/site-packages/v2rdm_casscf/v2rdm_casscf.so loaded.

  Memory set to 250.000 MiB by Python script.
hessian() will perform frequency computation by finite difference of analytic gradients.

-------------------------------------------------------------

  Using finite-differences of gradients to determine vibrational frequencies and 
  normal modes.  Resulting frequencies are only valid at stationary points.
	Generating geometries for use with 3-point formula.
	Displacement size will be 5.00e-03.
	Number of atoms is 12.
	Number of irreps is 8.
	Number of SALCS is 30.
	Index of salcs per irrep:
	 1 :  0  1  2  3  4  5 
	 2 :  6  7  8  9  10 
	 3 :  11 
	 4 :  12  13  14 
	 5 :  15  16 
	 6 :  17  18  19 
	 7 :  20  21  22  23  24 
	 8 :  25  26  27  28  29 
	Number of SALC's per irrep:
		 Irrep 1: 6
		 Irrep 2: 5
		 Irrep 3: 1
		 Irrep 4: 3
		 Irrep 5: 2
		 Irrep 6: 3
		 Irrep 7: 5
		 Irrep 8: 5
	Number of geometries (including reference) is 37.
	Number of displacements per irrep:
	  Irrep 1: 12
	  Irrep 2: 5
	  Irrep 3: 1
	  Irrep 4: 3
	  Irrep 5: 2
	  Irrep 6: 3
	  Irrep 7: 5
	  Irrep 8: 5

-------------------------------------------------------------

  //>>>>>>>>>>>>>>>>>>>>>>>>>>>>>>>>>>>//
  //    Loading displacement 1 of 37   //
  //<<<<<<<<<<<<<<<<<<<<<<<<<<<<<<<<<<<//
gradient() will perform analytic gradient computation.
    There are an even number of electrons - assuming singlet.
    Specify the multiplicity in the molecule input block.


*** tstart() called on Ruhees-MacBook-Pro.local
*** at Sun Apr  2 12:10:57 2017


         ---------------------------------------------------------
                                   SCF
            by Justin Turney, Rob Parrish, and Andy Simmonett
                              RHF Reference
                        1 Threads,    250 MiB Core
         ---------------------------------------------------------

  ==> Geometry <==

    Molecular point group: d2h
    Full point group: D2h

    Geometry (in Angstrom), charge = 0, multiplicity = 1:

       Center              X                  Y                   Z               Mass       
    ------------   -----------------  -----------------  -----------------  -----------------
           C         -0.000000000000     2.620119330773     0.000000000000    12.000000000000
           C         -2.269557630000     1.310329710000     0.000000000000    12.000000000000
           C         -2.269557630000    -1.310329710000     0.000000000000    12.000000000000
           C          0.000000000000    -2.620119330773     0.000000000000    12.000000000000
           C          2.269557630000    -1.310329710000     0.000000000000    12.000000000000
           C          2.269557630000     1.310329710000     0.000000000000    12.000000000000
           H         -4.041306510000     2.333249400000     0.000000000000     1.007825032070
           H         -4.041306510000    -2.333249400000     0.000000000000     1.007825032070
           H          0.000000000000    -4.666498800000     0.000000000000     1.007825032070
           H          4.041306510000    -2.333249400000     0.000000000000     1.007825032070
           H          4.041306510000     2.333249400000     0.000000000000     1.007825032070
           H         -0.000000000000     4.666498800000     0.000000000000     1.007825032070

  Running in d2h symmetry.

  Rotational constants: A =      0.05386  B =      0.05384  C =      0.02692 [cm^-1]
  Rotational constants: A =   1614.55354  B =   1614.20322  C =    807.18918 [MHz]
  Nuclear repulsion =  108.239264225609077

  Charge       = 0
  Multiplicity = 1
  Electrons    = 42
  Nalpha       = 21
  Nbeta        = 21

  ==> Algorithm <==

  SCF Algorithm Type is DF.
  DIIS enabled.
  MOM disabled.
  Fractional occupation disabled.
  Guess Type is SAD.
  Energy threshold   = 1.00e-08
  Density threshold  = 1.00e-08
  Integral threshold = 0.00e+00

  ==> Primary Basis <==

  Basis Set: CC-PVDZ
    Number of shells: 54
    Number of basis function: 114
    Number of Cartesian functions: 120
    Spherical Harmonics?: true
    Max angular momentum: 2

  ==> Pre-Iterations <==

   -------------------------------------------------------
    Irrep   Nso     Nmo     Nalpha   Nbeta   Ndocc  Nsocc
   -------------------------------------------------------
     Ag        24      24       0       0       0       0
     B1g       18      18       0       0       0       0
     B2g        6       6       0       0       0       0
     B3g        9       9       0       0       0       0
     Au         6       6       0       0       0       0
     B1u        9       9       0       0       0       0
     B2u       24      24       0       0       0       0
     B3u       18      18       0       0       0       0
   -------------------------------------------------------
    Total     114     114      21      21      21       0
   -------------------------------------------------------

  ==> Integral Setup <==

  ==> DFJK: Density-Fitted J/K Matrices <==

    J tasked:                  Yes
    K tasked:                  Yes
    wK tasked:                  No
    OpenMP threads:              1
    Integrals threads:           1
    Memory (MB):               178
    Algorithm:                Core
    Integral Cache:           NONE
    Schwarz Cutoff:          1E-12
    Fitting Condition:       1E-12

   => Auxiliary Basis Set <=

  Basis Set: 
    Number of shells: 198
    Number of basis function: 558
    Number of Cartesian functions: 636
    Spherical Harmonics?: true
    Max angular momentum: 3

  Minimum eigenvalue in the overlap matrix is 7.3348590610E-02.
  Using Symmetric Orthogonalization.
  SCF Guess: Superposition of Atomic Densities via on-the-fly atomic UHF.

  ==> Iterations <==

                           Total Energy        Delta E     RMS |[F,P]|

   @DF-RHF iter   0:  -226.63532893818871   -2.26635e+02   9.81413e-03 
   @DF-RHF iter   1:  -227.89698393342127   -1.26165e+00   1.12678e-02 
   @DF-RHF iter   2:  -228.05248169282339   -1.55498e-01   1.22177e-02 DIIS
   @DF-RHF iter   3:  -228.32134165091566   -2.68860e-01   2.75821e-03 DIIS
   @DF-RHF iter   4:  -228.34244735792220   -2.11057e-02   1.46710e-03 DIIS
   @DF-RHF iter   5:  -228.35594654522714   -1.34992e-02   7.75959e-04 DIIS
   @DF-RHF iter   6:  -228.36242069735999   -6.47415e-03   2.82563e-04 DIIS
   @DF-RHF iter   7:  -228.36356779554711   -1.14710e-03   1.25192e-04 DIIS
   @DF-RHF iter   8:  -228.36381093300622   -2.43137e-04   3.38625e-05 DIIS
   @DF-RHF iter   9:  -228.36382393205014   -1.29990e-05   8.76594e-06 DIIS
   @DF-RHF iter  10:  -228.36382451650633   -5.84456e-07   3.01037e-06 DIIS
   @DF-RHF iter  11:  -228.36382461892134   -1.02415e-07   1.47732e-06 DIIS
   @DF-RHF iter  12:  -228.36382464493164   -2.60103e-08   5.08939e-07 DIIS
   @DF-RHF iter  13:  -228.36382464922247   -4.29083e-09   1.87849e-07 DIIS
   @DF-RHF iter  14:  -228.36382464941101   -1.88550e-10   6.24391e-08 DIIS
   @DF-RHF iter  15:  -228.36382464945348   -4.24620e-11   2.32168e-08 DIIS
   @DF-RHF iter  16:  -228.36382464945956   -6.08225e-12   9.20062e-09 DIIS

  ==> Post-Iterations <==

    Orbital Energies (a.u.)
    -----------------------

    Doubly Occupied:                                                      

       1Ag   -11.517372     1B2u  -11.517370     1B3u  -11.465750  
       2Ag   -11.465748     1B1g  -11.465697     2B2u  -11.465696  
       3Ag    -0.842269     3B2u   -0.830815     2B3u   -0.798748  
       4Ag    -0.768719     2B1g   -0.742648     4B2u   -0.719589  
       5Ag    -0.425033     5B2u   -0.420438     3B3u   -0.385037  
       6Ag    -0.370259     3B1g   -0.365013     6B2u   -0.329237  
       4B3u   -0.298349     1B1u   -0.284288     1B2g   -0.277072  

    Virtual:                                                              

       4B1g   -0.143627     1B3g   -0.074986     1Au    -0.053664  
       7Ag    -0.052759     2B1u   -0.012740     8Ag    -0.009206  
       7B2u   -0.009028     2B3g    0.002974     5B3u    0.011432  
       9Ag     0.050901     6B3u    0.051740     5B1g    0.072753  
       8B2u    0.073412     9B2u    0.092490     6B1g    0.125761  
       3B1u    0.604606    10Ag     0.606353    10B2u    0.619843  
       3B3g    0.621310     2B2g    0.639412    11Ag     0.642274  
       7B3u    0.643603    11B2u    0.654025     7B1g    0.660843  
      12B2u    0.666361     8B3u    0.669295    12Ag     0.675164  
       8B1g    0.686346     4B1u    0.694404    13Ag     0.695700  
       2Au     0.710454    14Ag     0.720045    13B2u    0.721648  
       9B3u    0.739931    10B3u    0.753470     4B3g    0.769737  
      14B2u    0.854095    15Ag     0.859902     9B1g    0.862988  
      10B1g    0.873493    11B3u    0.906483    15B2u    0.909565  
      16Ag     0.916751    11B1g    0.937657    16B2u    1.134075  
      17Ag     1.190327    12B3u    1.197291    17B2u    1.229914  
      18Ag     1.243116    13B3u    1.253071    18B2u    1.270066  
      12B1g    1.275354     3B2g    1.278626     5B1u    1.284057  
      19Ag     1.287663     5B3g    1.289218    14B3u    1.291861  
       3Au     1.298506     6B1u    1.318273    20Ag     1.319539  
       4B2g    1.320406    13B1g    1.328145    19B2u    1.367564  
       6B3g    1.390963     4Au     1.394526     7B1u    1.394602  
       5B2g    1.402701     7B3g    1.428960     5Au     1.431647  
       8B1u    1.519026     8B3g    1.519046    15B3u    1.521269  
      14B1g    1.523514    21Ag     1.555398    16B3u    1.560436  
       6B2g    1.561780     9B1u    1.561803     6Au     1.564194  
       9B3g    1.564232    20B2u    1.573508    15B1g    1.579675  
      21B2u    1.665344    22Ag     1.666287    16B1g    1.677496  
      17B3u    1.693782    22B2u    1.707193    17B1g    1.728251  
      23Ag     1.894773    23B2u    1.900368    24Ag     1.935676  
      18B3u    1.936908    18B1g    1.948712    24B2u    1.953650  

    Final Occupation by Irrep:
             Ag   B1g   B2g   B3g    Au   B1u   B2u   B3u 
    DOCC [     6,    3,    1,    0,    0,    1,    6,    4 ]

  Energy converged.

  @DF-RHF Final Energy:  -228.36382464945956

   => Energetics <=

    Nuclear Repulsion Energy =            108.2392642256090767
    One-Electron Energy =                -519.6958843653922031
    Two-Electron Energy =                 183.0927954903235957
    DFT Exchange-Correlation Energy =       0.0000000000000000
    Empirical Dispersion Energy =           0.0000000000000000
    PCM Polarization Energy =               0.0000000000000000
    EFP Energy =                            0.0000000000000000
    Total Energy =                       -228.3638246494595307


  Saving occupied orbitals to File 180.

*** tstop() called on Ruhees-MacBook-Pro.local at Sun Apr  2 12:11:03 2017
Module time:
	user time   =       6.72 seconds =       0.11 minutes
	system time =       0.27 seconds =       0.00 minutes
	total time  =          6 seconds =       0.10 minutes
Total time:
	user time   =       6.72 seconds =       0.11 minutes
	system time =       0.27 seconds =       0.00 minutes
	total time  =          6 seconds =       0.10 minutes


Properties will be evaluated at   0.000000,   0.000000,   0.000000 Bohr

Properties computed using the SCF density matrix

  Nuclear Dipole Moment: (a.u.)
     X:    -0.0000      Y:     0.0000      Z:     0.0000

  Electronic Dipole Moment: (a.u.)
     X:     0.0000      Y:     0.0000      Z:     0.0000

  Dipole Moment: (a.u.)
     X:    -0.0000      Y:     0.0000      Z:     0.0000     Total:     0.0000

  Dipole Moment: (Debye)
     X:    -0.0000      Y:     0.0000      Z:     0.0000     Total:     0.0000


*** tstart() called on Ruhees-MacBook-Pro.local
*** at Sun Apr  2 12:11:03 2017


         ------------------------------------------------------------
                                   SCF GRAD                          
                          Rob Parrish, Justin Turney,                
                       Andy Simmonett, and Alex Sokolov              
         ------------------------------------------------------------

  ==> Geometry <==

    Molecular point group: d2h
    Full point group: D2h

    Geometry (in Angstrom), charge = 0, multiplicity = 1:

       Center              X                  Y                   Z               Mass       
    ------------   -----------------  -----------------  -----------------  -----------------
           C         -0.000000000000     2.620119330773     0.000000000000    12.000000000000
           C         -2.269557630000     1.310329710000     0.000000000000    12.000000000000
           C         -2.269557630000    -1.310329710000     0.000000000000    12.000000000000
           C          0.000000000000    -2.620119330773     0.000000000000    12.000000000000
           C          2.269557630000    -1.310329710000     0.000000000000    12.000000000000
           C          2.269557630000     1.310329710000     0.000000000000    12.000000000000
           H         -4.041306510000     2.333249400000     0.000000000000     1.007825032070
           H         -4.041306510000    -2.333249400000     0.000000000000     1.007825032070
           H          0.000000000000    -4.666498800000     0.000000000000     1.007825032070
           H          4.041306510000    -2.333249400000     0.000000000000     1.007825032070
           H          4.041306510000     2.333249400000     0.000000000000     1.007825032070
           H         -0.000000000000     4.666498800000     0.000000000000     1.007825032070

  Nuclear repulsion =  108.239264225609077

  ==> Basis Set <==

  Basis Set: CC-PVDZ
    Number of shells: 54
    Number of basis function: 114
    Number of Cartesian functions: 120
    Spherical Harmonics?: true
    Max angular momentum: 2

  ==> DFJKGrad: Density-Fitted SCF Gradients <==

    Gradient:                    1
    J tasked:                  Yes
    K tasked:                  Yes
    wK tasked:                  No
    OpenMP threads:              1
    Integrals threads:           1
    Memory (MB):               178
    Schwarz Cutoff:          0E+00
    Fitting Condition:       1E-12

   => Auxiliary Basis Set <=

  Basis Set: 
    Number of shells: 198
    Number of basis function: 558
    Number of Cartesian functions: 636
    Spherical Harmonics?: true
    Max angular momentum: 3


  -Total Gradient:
     Atom            X                  Y                   Z
    ------   -----------------  -----------------  -----------------
       1        0.000000000000    -0.048759298730     0.000000000000
       2        0.045389312353     0.003577966112     0.000000000000
       3        0.045389312353    -0.003577966112     0.000000000000
       4       -0.000000000000     0.048759298730     0.000000000000
       5       -0.045389312353    -0.003577966112     0.000000000000
       6       -0.045389312353     0.003577966112     0.000000000000
       7       -0.063990736191     0.037291872989     0.000000000000
       8       -0.063990736191    -0.037291872989     0.000000000000
       9        0.000000000000    -0.079098747900     0.000000000000
      10        0.063990736191    -0.037291872989     0.000000000000
      11        0.063990736191     0.037291872989     0.000000000000
      12       -0.000000000000     0.079098747900     0.000000000000


*** tstop() called on Ruhees-MacBook-Pro.local at Sun Apr  2 12:11:15 2017
Module time:
	user time   =      11.51 seconds =       0.19 minutes
	system time =       0.15 seconds =       0.00 minutes
	total time  =         12 seconds =       0.20 minutes
Total time:
	user time   =      18.27 seconds =       0.30 minutes
	system time =       0.42 seconds =       0.01 minutes
	total time  =         18 seconds =       0.30 minutes

  //>>>>>>>>>>>>>>>>>>>>>>>>>>>>>>>>>>>//
  //    Loading displacement 2 of 37   //
  //<<<<<<<<<<<<<<<<<<<<<<<<<<<<<<<<<<<//
gradient() will perform analytic gradient computation.

*** tstart() called on Ruhees-MacBook-Pro.local
*** at Sun Apr  2 12:11:15 2017


         ---------------------------------------------------------
                                   SCF
            by Justin Turney, Rob Parrish, and Andy Simmonett
                              RHF Reference
                        1 Threads,    250 MiB Core
         ---------------------------------------------------------

  ==> Geometry <==

    Molecular point group: d2h
    Full point group: D2h

    Geometry (in Angstrom), charge = 0, multiplicity = 1:

       Center              X                  Y                   Z               Mass       
    ------------   -----------------  -----------------  -----------------  -----------------
           C         -0.000000000000     2.621199509227     0.000000000000    12.000000000000
           C         -2.269557630000     1.310329710000     0.000000000000    12.000000000000
           C         -2.269557630000    -1.310329710000     0.000000000000    12.000000000000
           C          0.000000000000    -2.621199509227     0.000000000000    12.000000000000
           C          2.269557630000    -1.310329710000     0.000000000000    12.000000000000
           C          2.269557630000     1.310329710000     0.000000000000    12.000000000000
           H         -4.041306510000     2.333249400000     0.000000000000     1.007825032070
           H         -4.041306510000    -2.333249400000     0.000000000000     1.007825032070
           H          0.000000000000    -4.666498800000     0.000000000000     1.007825032070
           H          4.041306510000    -2.333249400000     0.000000000000     1.007825032070
           H          4.041306510000     2.333249400000     0.000000000000     1.007825032070
           H         -0.000000000000     4.666498800000     0.000000000000     1.007825032070

  Running in d2h symmetry.

  Rotational constants: A =      0.05384  B =      0.05383  C =      0.02692 [cm^-1]
  Rotational constants: A =   1614.20322  B =   1613.85297  C =    807.01404 [MHz]
  Nuclear repulsion =  108.229504134947405

  Charge       = 0
  Multiplicity = 1
  Electrons    = 42
  Nalpha       = 21
  Nbeta        = 21

  ==> Algorithm <==

  SCF Algorithm Type is DF.
  DIIS enabled.
  MOM disabled.
  Fractional occupation disabled.
  Guess Type is SAD.
  Energy threshold   = 1.00e-08
  Density threshold  = 1.00e-08
  Integral threshold = 0.00e+00

  ==> Primary Basis <==

  Basis Set: CC-PVDZ
    Number of shells: 54
    Number of basis function: 114
    Number of Cartesian functions: 120
    Spherical Harmonics?: true
    Max angular momentum: 2

  ==> Pre-Iterations <==

   -------------------------------------------------------
    Irrep   Nso     Nmo     Nalpha   Nbeta   Ndocc  Nsocc
   -------------------------------------------------------
     Ag        24      24       0       0       0       0
     B1g       18      18       0       0       0       0
     B2g        6       6       0       0       0       0
     B3g        9       9       0       0       0       0
     Au         6       6       0       0       0       0
     B1u        9       9       0       0       0       0
     B2u       24      24       0       0       0       0
     B3u       18      18       0       0       0       0
   -------------------------------------------------------
    Total     114     114      21      21      21       0
   -------------------------------------------------------

  ==> Integral Setup <==

  ==> DFJK: Density-Fitted J/K Matrices <==

    J tasked:                  Yes
    K tasked:                  Yes
    wK tasked:                  No
    OpenMP threads:              1
    Integrals threads:           1
    Memory (MB):               178
    Algorithm:                Core
    Integral Cache:           NONE
    Schwarz Cutoff:          1E-12
    Fitting Condition:       1E-12

   => Auxiliary Basis Set <=

  Basis Set: 
    Number of shells: 198
    Number of basis function: 558
    Number of Cartesian functions: 636
    Spherical Harmonics?: true
    Max angular momentum: 3

  Minimum eigenvalue in the overlap matrix is 7.3393987593E-02.
  Using Symmetric Orthogonalization.
  SCF Guess: Superposition of Atomic Densities via on-the-fly atomic UHF.

  ==> Iterations <==

                           Total Energy        Delta E     RMS |[F,P]|

   @DF-RHF iter   0:  -226.63522927065011   -2.26635e+02   9.81373e-03 
   @DF-RHF iter   1:  -227.89739394528422   -1.26216e+00   1.12658e-02 
   @DF-RHF iter   2:  -228.05343960821514   -1.56046e-01   1.21990e-02 DIIS
   @DF-RHF iter   3:  -228.32156731682309   -2.68128e-01   2.75511e-03 DIIS
   @DF-RHF iter   4:  -228.34266042440882   -2.10931e-02   1.46676e-03 DIIS
   @DF-RHF iter   5:  -228.35615189468271   -1.34915e-02   7.75595e-04 DIIS
   @DF-RHF iter   6:  -228.36261872290814   -6.46683e-03   2.82613e-04 DIIS
   @DF-RHF iter   7:  -228.36376664840427   -1.14793e-03   1.25254e-04 DIIS
   @DF-RHF iter   8:  -228.36401013435230   -2.43486e-04   3.38521e-05 DIIS
   @DF-RHF iter   9:  -228.36402312645797   -1.29921e-05   8.76447e-06 DIIS
   @DF-RHF iter  10:  -228.36402371157502   -5.85117e-07   3.01106e-06 DIIS
   @DF-RHF iter  11:  -228.36402381426828   -1.02693e-07   1.47988e-06 DIIS
   @DF-RHF iter  12:  -228.36402384036913   -2.61008e-08   5.07948e-07 DIIS
   @DF-RHF iter  13:  -228.36402384464364   -4.27451e-09   1.87873e-07 DIIS
   @DF-RHF iter  14:  -228.36402384483179   -1.88152e-10   6.24060e-08 DIIS
   @DF-RHF iter  15:  -228.36402384487414   -4.23483e-11   2.32033e-08 DIIS
   @DF-RHF iter  16:  -228.36402384488022   -6.08225e-12   9.20146e-09 DIIS

  ==> Post-Iterations <==

    Orbital Energies (a.u.)
    -----------------------

    Doubly Occupied:                                                      

       1Ag   -11.517348     1B2u  -11.517345     1B3u  -11.465722  
       2Ag   -11.465720     1B1g  -11.465670     2B2u  -11.465668  
       3Ag    -0.842231     3B2u   -0.830796     2B3u   -0.798717  
       4Ag    -0.768752     2B1g   -0.742616     4B2u   -0.719609  
       5Ag    -0.425141     5B2u   -0.420572     3B3u   -0.384994  
       6Ag    -0.370293     3B1g   -0.364948     6B2u   -0.329260  
       4B3u   -0.298277     1B1u   -0.284261     1B2g   -0.277057  

    Virtual:                                                              

       4B1g   -0.143637     1B3g   -0.074949     1Au    -0.053645  
       7Ag    -0.052713     2B1u   -0.012748     8Ag    -0.009092  
       7B2u   -0.008909     2B3g    0.002954     5B3u    0.011444  
       9Ag     0.050928     6B3u    0.051694     5B1g    0.072753  
       8B2u    0.073445     9B2u    0.092511     6B1g    0.125745  
       3B1u    0.604610    10Ag     0.606297    10B2u    0.619696  
       3B3g    0.621295     2B2g    0.639435    11Ag     0.642180  
       7B3u    0.643605    11B2u    0.654057     7B1g    0.660866  
      12B2u    0.666368     8B3u    0.669324    12Ag     0.675205  
       8B1g    0.686296     4B1u    0.694390    13Ag     0.695714  
       2Au     0.710483    14Ag     0.720071    13B2u    0.721502  
       9B3u    0.739879    10B3u    0.753470     4B3g    0.769724  
      14B2u    0.854234    15Ag     0.859904     9B1g    0.862990  
      10B1g    0.873423    11B3u    0.906451    15B2u    0.909637  
      16Ag     0.916812    11B1g    0.937673    16B2u    1.134045  
      17Ag     1.190385    12B3u    1.197352    17B2u    1.229898  
      18Ag     1.243113    13B3u    1.253048    18B2u    1.270186  
      12B1g    1.275414     3B2g    1.278723     5B1u    1.283946  
      19Ag     1.287700     5B3g    1.289118    14B3u    1.291862  
       3Au     1.298596     6B1u    1.318302    20Ag     1.319455  
       4B2g    1.320441    13B1g    1.328076    19B2u    1.367395  
       6B3g    1.390908     4Au     1.394459     7B1u    1.394542  
       5B2g    1.402593     7B3g    1.428977     5Au     1.431636  
       8B1u    1.519184     8B3g    1.519203    15B3u    1.521400  
      14B1g    1.523651    21Ag     1.555445    16B3u    1.560490  
       6B2g    1.561825     9B1u    1.561849     6Au     1.564240  
       9B3g    1.564277    20B2u    1.573558    15B1g    1.579722  
      21B2u    1.665027    22Ag     1.665948    16B1g    1.677315  
      17B3u    1.693433    22B2u    1.707161    17B1g    1.728079  
      23Ag     1.895466    23B2u    1.901087    24Ag     1.935770  
      18B3u    1.936950    18B1g    1.948751    24B2u    1.953706  

    Final Occupation by Irrep:
             Ag   B1g   B2g   B3g    Au   B1u   B2u   B3u 
    DOCC [     6,    3,    1,    0,    0,    1,    6,    4 ]

  Energy converged.

  @DF-RHF Final Energy:  -228.36402384488022

   => Energetics <=

    Nuclear Repulsion Energy =            108.2295041349474047
    One-Electron Energy =                -519.6770623206814435
    Two-Electron Energy =                 183.0835343408538165
    DFT Exchange-Correlation Energy =       0.0000000000000000
    Empirical Dispersion Energy =           0.0000000000000000
    PCM Polarization Energy =               0.0000000000000000
    EFP Energy =                            0.0000000000000000
    Total Energy =                       -228.3640238448801938


  Saving occupied orbitals to File 180.

*** tstop() called on Ruhees-MacBook-Pro.local at Sun Apr  2 12:11:22 2017
Module time:
	user time   =       7.46 seconds =       0.12 minutes
	system time =       0.27 seconds =       0.00 minutes
	total time  =          7 seconds =       0.12 minutes
Total time:
	user time   =      26.16 seconds =       0.44 minutes
	system time =       0.69 seconds =       0.01 minutes
	total time  =         25 seconds =       0.42 minutes


Properties will be evaluated at   0.000000,   0.000000,   0.000000 Bohr

Properties computed using the SCF density matrix

  Nuclear Dipole Moment: (a.u.)
     X:    -0.0000      Y:     0.0000      Z:     0.0000

  Electronic Dipole Moment: (a.u.)
     X:     0.0000      Y:     0.0000      Z:     0.0000

  Dipole Moment: (a.u.)
     X:    -0.0000      Y:     0.0000      Z:     0.0000     Total:     0.0000

  Dipole Moment: (Debye)
     X:    -0.0000      Y:     0.0000      Z:     0.0000     Total:     0.0000


*** tstart() called on Ruhees-MacBook-Pro.local
*** at Sun Apr  2 12:11:22 2017


         ------------------------------------------------------------
                                   SCF GRAD                          
                          Rob Parrish, Justin Turney,                
                       Andy Simmonett, and Alex Sokolov              
         ------------------------------------------------------------

  ==> Geometry <==

    Molecular point group: d2h
    Full point group: D2h

    Geometry (in Angstrom), charge = 0, multiplicity = 1:

       Center              X                  Y                   Z               Mass       
    ------------   -----------------  -----------------  -----------------  -----------------
           C         -0.000000000000     2.621199509227     0.000000000000    12.000000000000
           C         -2.269557630000     1.310329710000     0.000000000000    12.000000000000
           C         -2.269557630000    -1.310329710000     0.000000000000    12.000000000000
           C          0.000000000000    -2.621199509227     0.000000000000    12.000000000000
           C          2.269557630000    -1.310329710000     0.000000000000    12.000000000000
           C          2.269557630000     1.310329710000     0.000000000000    12.000000000000
           H         -4.041306510000     2.333249400000     0.000000000000     1.007825032070
           H         -4.041306510000    -2.333249400000     0.000000000000     1.007825032070
           H          0.000000000000    -4.666498800000     0.000000000000     1.007825032070
           H          4.041306510000    -2.333249400000     0.000000000000     1.007825032070
           H          4.041306510000     2.333249400000     0.000000000000     1.007825032070
           H         -0.000000000000     4.666498800000     0.000000000000     1.007825032070

  Nuclear repulsion =  108.229504134947405

  ==> Basis Set <==

  Basis Set: CC-PVDZ
    Number of shells: 54
    Number of basis function: 114
    Number of Cartesian functions: 120
    Spherical Harmonics?: true
    Max angular momentum: 2

  ==> DFJKGrad: Density-Fitted SCF Gradients <==

    Gradient:                    1
    J tasked:                  Yes
    K tasked:                  Yes
    wK tasked:                  No
    OpenMP threads:              1
    Integrals threads:           1
    Memory (MB):               178
    Schwarz Cutoff:          0E+00
    Fitting Condition:       1E-12

   => Auxiliary Basis Set <=

  Basis Set: 
    Number of shells: 198
    Number of basis function: 558
    Number of Cartesian functions: 636
    Spherical Harmonics?: true
    Max angular momentum: 3


  -Total Gradient:
     Atom            X                  Y                   Z
    ------   -----------------  -----------------  -----------------
       1        0.000000000000    -0.048826120854     0.000000000000
       2        0.045420666478     0.003563734692     0.000000000000
       3        0.045420666478    -0.003563734692     0.000000000000
       4       -0.000000000000     0.048826120854     0.000000000000
       5       -0.045420666478    -0.003563734692     0.000000000000
       6       -0.045420666478     0.003563734692     0.000000000000
       7       -0.063991858135     0.037295183277     0.000000000000
       8       -0.063991858135    -0.037295183277     0.000000000000
       9        0.000000000000    -0.079156476890     0.000000000000
      10        0.063991858135    -0.037295183277     0.000000000000
      11        0.063991858135     0.037295183277     0.000000000000
      12       -0.000000000000     0.079156476890     0.000000000000


*** tstop() called on Ruhees-MacBook-Pro.local at Sun Apr  2 12:11:34 2017
Module time:
	user time   =      12.39 seconds =       0.21 minutes
	system time =       0.14 seconds =       0.00 minutes
	total time  =         12 seconds =       0.20 minutes
Total time:
	user time   =      38.59 seconds =       0.64 minutes
	system time =       0.83 seconds =       0.01 minutes
	total time  =         37 seconds =       0.62 minutes

  //>>>>>>>>>>>>>>>>>>>>>>>>>>>>>>>>>>>//
  //    Loading displacement 3 of 37   //
  //<<<<<<<<<<<<<<<<<<<<<<<<<<<<<<<<<<<//
gradient() will perform analytic gradient computation.

*** tstart() called on Ruhees-MacBook-Pro.local
*** at Sun Apr  2 12:11:35 2017


         ---------------------------------------------------------
                                   SCF
            by Justin Turney, Rob Parrish, and Andy Simmonett
                              RHF Reference
                        1 Threads,    250 MiB Core
         ---------------------------------------------------------

  ==> Geometry <==

    Molecular point group: d2h
    Full point group: D2h

    Geometry (in Angstrom), charge = 0, multiplicity = 1:

       Center              X                  Y                   Z               Mass       
    ------------   -----------------  -----------------  -----------------  -----------------
           C         -0.000000000000     2.620659420000     0.000000000000    12.000000000000
           C         -2.269939530755     1.310329710000     0.000000000000    12.000000000000
           C         -2.269939530755    -1.310329710000     0.000000000000    12.000000000000
           C          0.000000000000    -2.620659420000     0.000000000000    12.000000000000
           C          2.269939530755    -1.310329710000     0.000000000000    12.000000000000
           C          2.269939530755     1.310329710000     0.000000000000    12.000000000000
           H         -4.041306510000     2.333249400000     0.000000000000     1.007825032070
           H         -4.041306510000    -2.333249400000     0.000000000000     1.007825032070
           H          0.000000000000    -4.666498800000     0.000000000000     1.007825032070
           H          4.041306510000    -2.333249400000     0.000000000000     1.007825032070
           H          4.041306510000     2.333249400000     0.000000000000     1.007825032070
           H         -0.000000000000     4.666498800000     0.000000000000     1.007825032070

  Running in d2h symmetry.

  Rotational constants: A =      0.05384  B =      0.05383  C =      0.02692 [cm^-1]
  Rotational constants: A =   1614.20322  B =   1613.77429  C =    806.99436 [MHz]
  Nuclear repulsion =  108.228407862955351

  Charge       = 0
  Multiplicity = 1
  Electrons    = 42
  Nalpha       = 21
  Nbeta        = 21

  ==> Algorithm <==

  SCF Algorithm Type is DF.
  DIIS enabled.
  MOM disabled.
  Fractional occupation disabled.
  Guess Type is SAD.
  Energy threshold   = 1.00e-08
  Density threshold  = 1.00e-08
  Integral threshold = 0.00e+00

  ==> Primary Basis <==

  Basis Set: CC-PVDZ
    Number of shells: 54
    Number of basis function: 114
    Number of Cartesian functions: 120
    Spherical Harmonics?: true
    Max angular momentum: 2

  ==> Pre-Iterations <==

   -------------------------------------------------------
    Irrep   Nso     Nmo     Nalpha   Nbeta   Ndocc  Nsocc
   -------------------------------------------------------
     Ag        24      24       0       0       0       0
     B1g       18      18       0       0       0       0
     B2g        6       6       0       0       0       0
     B3g        9       9       0       0       0       0
     Au         6       6       0       0       0       0
     B1u        9       9       0       0       0       0
     B2u       24      24       0       0       0       0
     B3u       18      18       0       0       0       0
   -------------------------------------------------------
    Total     114     114      21      21      21       0
   -------------------------------------------------------

  ==> Integral Setup <==

  ==> DFJK: Density-Fitted J/K Matrices <==

    J tasked:                  Yes
    K tasked:                  Yes
    wK tasked:                  No
    OpenMP threads:              1
    Integrals threads:           1
    Memory (MB):               178
    Algorithm:                Core
    Integral Cache:           NONE
    Schwarz Cutoff:          1E-12
    Fitting Condition:       1E-12

   => Auxiliary Basis Set <=

  Basis Set: 
    Number of shells: 198
    Number of basis function: 558
    Number of Cartesian functions: 636
    Spherical Harmonics?: true
    Max angular momentum: 3

  Minimum eigenvalue in the overlap matrix is 7.3399074649E-02.
  Using Symmetric Orthogonalization.
  SCF Guess: Superposition of Atomic Densities via on-the-fly atomic UHF.

  ==> Iterations <==

                           Total Energy        Delta E     RMS |[F,P]|

   @DF-RHF iter   0:  -226.63530163150523   -2.26635e+02   9.81372e-03 
   @DF-RHF iter   1:  -227.89737444188233   -1.26207e+00   1.12654e-02 
   @DF-RHF iter   2:  -228.05322866439809   -1.55854e-01   1.22056e-02 DIIS
   @DF-RHF iter   3:  -228.32157997464151   -2.68351e-01   2.75725e-03 DIIS
   @DF-RHF iter   4:  -228.34268433815868   -2.11044e-02   1.46669e-03 DIIS
   @DF-RHF iter   5:  -228.35618153628781   -1.34972e-02   7.75644e-04 DIIS
   @DF-RHF iter   6:  -228.36265056840085   -6.46903e-03   2.82627e-04 DIIS
   @DF-RHF iter   7:  -228.36379838770915   -1.14782e-03   1.25216e-04 DIIS
   @DF-RHF iter   8:  -228.36404163385902   -2.43246e-04   3.38328e-05 DIIS
   @DF-RHF iter   9:  -228.36405460224455   -1.29684e-05   8.75803e-06 DIIS
   @DF-RHF iter  10:  -228.36405518606983   -5.83825e-07   3.00829e-06 DIIS
   @DF-RHF iter  11:  -228.36405528843829   -1.02368e-07   1.47798e-06 DIIS
   @DF-RHF iter  12:  -228.36405531445985   -2.60216e-08   5.08352e-07 DIIS
   @DF-RHF iter  13:  -228.36405531874090   -4.28105e-09   1.87625e-07 DIIS
   @DF-RHF iter  14:  -228.36405531892837   -1.87470e-10   6.22691e-08 DIIS
   @DF-RHF iter  15:  -228.36405531897060   -4.22347e-11   2.31598e-08 DIIS
   @DF-RHF iter  16:  -228.36405531897668   -6.08225e-12   9.18499e-09 DIIS

  ==> Post-Iterations <==

    Orbital Energies (a.u.)
    -----------------------

    Doubly Occupied:                                                      

       1Ag   -11.517360     1B2u  -11.517358     1B3u  -11.465706  
       2Ag   -11.465704     1B1g  -11.465653     2B2u  -11.465651  
       3Ag    -0.842218     3B2u   -0.830780     2B3u   -0.798716  
       4Ag    -0.768746     2B1g   -0.742618     4B2u   -0.719610  
       5Ag    -0.425083     5B2u   -0.420499     3B3u   -0.385048  
       6Ag    -0.370312     3B1g   -0.364993     6B2u   -0.329287  
       4B3u   -0.298267     1B1u   -0.284253     1B2g   -0.277051  

    Virtual:                                                              

       4B1g   -0.143619     1B3g   -0.074938     1Au    -0.053639  
       7Ag    -0.052712     2B1u   -0.012744     8Ag    -0.009119  
       7B2u   -0.008950     2B3g    0.002956     5B3u    0.011465  
       9Ag     0.050931     6B3u    0.051724     5B1g    0.072797  
       8B2u    0.073437     9B2u    0.092532     6B1g    0.125743  
       3B1u    0.604612    10Ag     0.606316    10B2u    0.619769  
       3B3g    0.621303     2B2g    0.639435    11Ag     0.642233  
       7B3u    0.643587    11B2u    0.654019     7B1g    0.660817  
      12B2u    0.666366     8B3u    0.669321    12Ag     0.675161  
       8B1g    0.686309     4B1u    0.694404    13Ag     0.695687  
       2Au     0.710480    14Ag     0.720097    13B2u    0.721513  
       9B3u    0.739832    10B3u    0.753476     4B3g    0.769727  
      14B2u    0.854199    15Ag     0.859909     9B1g    0.862986  
      10B1g    0.873450    11B3u    0.906523    15B2u    0.909633  
      16Ag     0.916774    11B1g    0.937707    16B2u    1.134046  
      17Ag     1.190412    12B3u    1.197380    17B2u    1.229909  
      18Ag     1.243141    13B3u    1.253037    18B2u    1.270188  
      12B1g    1.275433     3B2g    1.278736     5B1u    1.284031  
      19Ag     1.287693     5B3g    1.289187    14B3u    1.291877  
       3Au     1.298582     6B1u    1.318265    20Ag     1.319402  
       4B2g    1.320395    13B1g    1.328093    19B2u    1.367368  
       6B3g    1.390880     4Au     1.394447     7B1u    1.394526  
       5B2g    1.402593     7B3g    1.428973     5Au     1.431632  
       8B1u    1.519110     8B3g    1.519130    15B3u    1.521346  
      14B1g    1.523592    21Ag     1.555480    16B3u    1.560513  
       6B2g    1.561878     9B1u    1.561901     6Au     1.564294  
       9B3g    1.564331    20B2u    1.573610    15B1g    1.579765  
      21B2u    1.664987    22Ag     1.665905    16B1g    1.677310  
      17B3u    1.693399    22B2u    1.707164    17B1g    1.728056  
      23Ag     1.895146    23B2u    1.900741    24Ag     1.935957  
      18B3u    1.937185    18B1g    1.948980    24B2u    1.953913  

    Final Occupation by Irrep:
             Ag   B1g   B2g   B3g    Au   B1u   B2u   B3u 
    DOCC [     6,    3,    1,    0,    0,    1,    6,    4 ]

  Energy converged.

  @DF-RHF Final Energy:  -228.36405531897668

   => Energetics <=

    Nuclear Repulsion Energy =            108.2284078629553505
    One-Electron Energy =                -519.6751031608202993
    Two-Electron Energy =                 183.0826399788882952
    DFT Exchange-Correlation Energy =       0.0000000000000000
    Empirical Dispersion Energy =           0.0000000000000000
    PCM Polarization Energy =               0.0000000000000000
    EFP Energy =                            0.0000000000000000
    Total Energy =                       -228.3640553189766536


  Saving occupied orbitals to File 180.

*** tstop() called on Ruhees-MacBook-Pro.local at Sun Apr  2 12:11:41 2017
Module time:
	user time   =       6.92 seconds =       0.12 minutes
	system time =       0.25 seconds =       0.00 minutes
	total time  =          6 seconds =       0.10 minutes
Total time:
	user time   =      45.87 seconds =       0.76 minutes
	system time =       1.09 seconds =       0.02 minutes
	total time  =         44 seconds =       0.73 minutes


Properties will be evaluated at   0.000000,   0.000000,   0.000000 Bohr

Properties computed using the SCF density matrix

  Nuclear Dipole Moment: (a.u.)
     X:    -0.0000      Y:     0.0000      Z:     0.0000

  Electronic Dipole Moment: (a.u.)
     X:     0.0000      Y:     0.0000      Z:     0.0000

  Dipole Moment: (a.u.)
     X:    -0.0000      Y:     0.0000      Z:     0.0000     Total:     0.0000

  Dipole Moment: (Debye)
     X:    -0.0000      Y:     0.0000      Z:     0.0000     Total:     0.0000


*** tstart() called on Ruhees-MacBook-Pro.local
*** at Sun Apr  2 12:11:41 2017


         ------------------------------------------------------------
                                   SCF GRAD                          
                          Rob Parrish, Justin Turney,                
                       Andy Simmonett, and Alex Sokolov              
         ------------------------------------------------------------

  ==> Geometry <==

    Molecular point group: d2h
    Full point group: D2h

    Geometry (in Angstrom), charge = 0, multiplicity = 1:

       Center              X                  Y                   Z               Mass       
    ------------   -----------------  -----------------  -----------------  -----------------
           C         -0.000000000000     2.620659420000     0.000000000000    12.000000000000
           C         -2.269939530755     1.310329710000     0.000000000000    12.000000000000
           C         -2.269939530755    -1.310329710000     0.000000000000    12.000000000000
           C          0.000000000000    -2.620659420000     0.000000000000    12.000000000000
           C          2.269939530755    -1.310329710000     0.000000000000    12.000000000000
           C          2.269939530755     1.310329710000     0.000000000000    12.000000000000
           H         -4.041306510000     2.333249400000     0.000000000000     1.007825032070
           H         -4.041306510000    -2.333249400000     0.000000000000     1.007825032070
           H          0.000000000000    -4.666498800000     0.000000000000     1.007825032070
           H          4.041306510000    -2.333249400000     0.000000000000     1.007825032070
           H          4.041306510000     2.333249400000     0.000000000000     1.007825032070
           H         -0.000000000000     4.666498800000     0.000000000000     1.007825032070

  Nuclear repulsion =  108.228407862955351

  ==> Basis Set <==

  Basis Set: CC-PVDZ
    Number of shells: 54
    Number of basis function: 114
    Number of Cartesian functions: 120
    Spherical Harmonics?: true
    Max angular momentum: 2

  ==> DFJKGrad: Density-Fitted SCF Gradients <==

    Gradient:                    1
    J tasked:                  Yes
    K tasked:                  Yes
    wK tasked:                  No
    OpenMP threads:              1
    Integrals threads:           1
    Memory (MB):               178
    Schwarz Cutoff:          0E+00
    Fitting Condition:       1E-12

   => Auxiliary Basis Set <=

  Basis Set: 
    Number of shells: 198
    Number of basis function: 558
    Number of Cartesian functions: 636
    Spherical Harmonics?: true
    Max angular momentum: 3


  -Total Gradient:
     Atom            X                  Y                   Z
    ------   -----------------  -----------------  -----------------
       1        0.000000000000    -0.048814860834     0.000000000000
       2        0.045427836497     0.003556060931     0.000000000000
       3        0.045427836497    -0.003556060931     0.000000000000
       4       -0.000000000000     0.048814860834     0.000000000000
       5       -0.045427836497    -0.003556060931     0.000000000000
       6       -0.045427836497     0.003556060931     0.000000000000
       7       -0.064003514350     0.037309428059     0.000000000000
       8       -0.064003514350    -0.037309428059     0.000000000000
       9        0.000000000000    -0.079129720098     0.000000000000
      10        0.064003514350    -0.037309428059     0.000000000000
      11        0.064003514350     0.037309428059     0.000000000000
      12       -0.000000000000     0.079129720098     0.000000000000


*** tstop() called on Ruhees-MacBook-Pro.local at Sun Apr  2 12:11:52 2017
Module time:
	user time   =      11.52 seconds =       0.19 minutes
	system time =       0.12 seconds =       0.00 minutes
	total time  =         11 seconds =       0.18 minutes
Total time:
	user time   =      57.42 seconds =       0.96 minutes
	system time =       1.21 seconds =       0.02 minutes
	total time  =         55 seconds =       0.92 minutes

  //>>>>>>>>>>>>>>>>>>>>>>>>>>>>>>>>>>>//
  //    Loading displacement 4 of 37   //
  //<<<<<<<<<<<<<<<<<<<<<<<<<<<<<<<<<<<//
gradient() will perform analytic gradient computation.

*** tstart() called on Ruhees-MacBook-Pro.local
*** at Sun Apr  2 12:11:53 2017


         ---------------------------------------------------------
                                   SCF
            by Justin Turney, Rob Parrish, and Andy Simmonett
                              RHF Reference
                        1 Threads,    250 MiB Core
         ---------------------------------------------------------

  ==> Geometry <==

    Molecular point group: d2h
    Full point group: D2h

    Geometry (in Angstrom), charge = 0, multiplicity = 1:

       Center              X                  Y                   Z               Mass       
    ------------   -----------------  -----------------  -----------------  -----------------
           C         -0.000000000000     2.620659420000     0.000000000000    12.000000000000
           C         -2.269175729245     1.310329710000     0.000000000000    12.000000000000
           C         -2.269175729245    -1.310329710000     0.000000000000    12.000000000000
           C          0.000000000000    -2.620659420000     0.000000000000    12.000000000000
           C          2.269175729245    -1.310329710000     0.000000000000    12.000000000000
           C          2.269175729245     1.310329710000     0.000000000000    12.000000000000
           H         -4.041306510000     2.333249400000     0.000000000000     1.007825032070
           H         -4.041306510000    -2.333249400000     0.000000000000     1.007825032070
           H          0.000000000000    -4.666498800000     0.000000000000     1.007825032070
           H          4.041306510000    -2.333249400000     0.000000000000     1.007825032070
           H          4.041306510000     2.333249400000     0.000000000000     1.007825032070
           H         -0.000000000000     4.666498800000     0.000000000000     1.007825032070

  Running in d2h symmetry.

  Rotational constants: A =      0.05386  B =      0.05384  C =      0.02693 [cm^-1]
  Rotational constants: A =   1614.63230  B =   1614.20322  C =    807.20886 [MHz]
  Nuclear repulsion =  108.240361484373551

  Charge       = 0
  Multiplicity = 1
  Electrons    = 42
  Nalpha       = 21
  Nbeta        = 21

  ==> Algorithm <==

  SCF Algorithm Type is DF.
  DIIS enabled.
  MOM disabled.
  Fractional occupation disabled.
  Guess Type is SAD.
  Energy threshold   = 1.00e-08
  Density threshold  = 1.00e-08
  Integral threshold = 0.00e+00

  ==> Primary Basis <==

  Basis Set: CC-PVDZ
    Number of shells: 54
    Number of basis function: 114
    Number of Cartesian functions: 120
    Spherical Harmonics?: true
    Max angular momentum: 2

  ==> Pre-Iterations <==

   -------------------------------------------------------
    Irrep   Nso     Nmo     Nalpha   Nbeta   Ndocc  Nsocc
   -------------------------------------------------------
     Ag        24      24       0       0       0       0
     B1g       18      18       0       0       0       0
     B2g        6       6       0       0       0       0
     B3g        9       9       0       0       0       0
     Au         6       6       0       0       0       0
     B1u        9       9       0       0       0       0
     B2u       24      24       0       0       0       0
     B3u       18      18       0       0       0       0
   -------------------------------------------------------
    Total     114     114      21      21      21       0
   -------------------------------------------------------

  ==> Integral Setup <==

  ==> DFJK: Density-Fitted J/K Matrices <==

    J tasked:                  Yes
    K tasked:                  Yes
    wK tasked:                  No
    OpenMP threads:              1
    Integrals threads:           1
    Memory (MB):               178
    Algorithm:                Core
    Integral Cache:           NONE
    Schwarz Cutoff:          1E-12
    Fitting Condition:       1E-12

   => Auxiliary Basis Set <=

  Basis Set: 
    Number of shells: 198
    Number of basis function: 558
    Number of Cartesian functions: 636
    Spherical Harmonics?: true
    Max angular momentum: 3

  Minimum eigenvalue in the overlap matrix is 7.3343474933E-02.
  Using Symmetric Orthogonalization.
  SCF Guess: Superposition of Atomic Densities via on-the-fly atomic UHF.

  ==> Iterations <==

                           Total Energy        Delta E     RMS |[F,P]|

   @DF-RHF iter   0:  -226.63525657394044   -2.26635e+02   9.81414e-03 
   @DF-RHF iter   1:  -227.89700338153105   -1.26175e+00   1.12682e-02 
   @DF-RHF iter   2:  -228.05269298624918   -1.55690e-01   1.22111e-02 DIIS
   @DF-RHF iter   3:  -228.32132900153297   -2.68636e-01   2.75607e-03 DIIS
   @DF-RHF iter   4:  -228.34242343122057   -2.10944e-02   1.46717e-03 DIIS
   @DF-RHF iter   5:  -228.35591690049185   -1.34935e-02   7.75911e-04 DIIS
   @DF-RHF iter   6:  -228.36238885008876   -6.47195e-03   2.82550e-04 DIIS
   @DF-RHF iter   7:  -228.36353605435968   -1.14720e-03   1.25230e-04 DIIS
   @DF-RHF iter   8:  -228.36377943118308   -2.43377e-04   3.38818e-05 DIIS
   @DF-RHF iter   9:  -228.36379245403978   -1.30229e-05   8.77241e-06 DIIS
   @DF-RHF iter  10:  -228.36379303979086   -5.85751e-07   3.01314e-06 DIIS
   @DF-RHF iter  11:  -228.36379314253131   -1.02740e-07   1.47922e-06 DIIS
   @DF-RHF iter  12:  -228.36379316862107   -2.60898e-08   5.08536e-07 DIIS
   @DF-RHF iter  13:  -228.36379317290519   -4.28412e-09   1.88098e-07 DIIS
   @DF-RHF iter  14:  -228.36379317309425   -1.89061e-10   6.25761e-08 DIIS
   @DF-RHF iter  15:  -228.36379317313688   -4.26326e-11   2.32604e-08 DIIS
   @DF-RHF iter  16:  -228.36379317314308   -6.19593e-12   9.21710e-09 DIIS

  ==> Post-Iterations <==

    Orbital Energies (a.u.)
    -----------------------

    Doubly Occupied:                                                      

       1Ag   -11.517360     1B2u  -11.517358     1B3u  -11.465767  
       2Ag   -11.465765     1B1g  -11.465714     2B2u  -11.465712  
       3Ag    -0.842281     3B2u   -0.830831     2B3u   -0.798749  
       4Ag    -0.768725     2B1g   -0.742646     4B2u   -0.719588  
       5Ag    -0.425092     5B2u   -0.420511     3B3u   -0.384983  
       6Ag    -0.370241     3B1g   -0.364968     6B2u   -0.329209  
       4B3u   -0.298359     1B1u   -0.284296     1B2g   -0.277078  

    Virtual:                                                              

       4B1g   -0.143645     1B3g   -0.074997     1Au    -0.053670  
       7Ag    -0.052760     2B1u   -0.012744     8Ag    -0.009179  
       7B2u   -0.008987     2B3g    0.002971     5B3u    0.011411  
       9Ag     0.050898     6B3u    0.051710     5B1g    0.072709  
       8B2u    0.073419     9B2u    0.092469     6B1g    0.125763  
       3B1u    0.604603    10Ag     0.606335    10B2u    0.619770  
       3B3g    0.621302     2B2g    0.639412    11Ag     0.642221  
       7B3u    0.643622    11B2u    0.654063     7B1g    0.660892  
      12B2u    0.666363     8B3u    0.669298    12Ag     0.675208  
       8B1g    0.686333     4B1u    0.694390    13Ag     0.695727  
       2Au     0.710458    14Ag     0.720018    13B2u    0.721637  
       9B3u    0.739978    10B3u    0.753464     4B3g    0.769733  
      14B2u    0.854131    15Ag     0.859897     9B1g    0.862992  
      10B1g    0.873467    11B3u    0.906411    15B2u    0.909569  
      16Ag     0.916789    11B1g    0.937623    16B2u    1.134073  
      17Ag     1.190300    12B3u    1.197263    17B2u    1.229902  
      18Ag     1.243088    13B3u    1.253082    18B2u    1.270064  
      12B1g    1.275336     3B2g    1.278613     5B1u    1.283973  
      19Ag     1.287669     5B3g    1.289150    14B3u    1.291846  
       3Au     1.298520     6B1u    1.318310    20Ag     1.319593  
       4B2g    1.320452    13B1g    1.328128    19B2u    1.367591  
       6B3g    1.390990     4Au     1.394537     7B1u    1.394618  
       5B2g    1.402702     7B3g    1.428963     5Au     1.431650  
       8B1u    1.519100     8B3g    1.519119    15B3u    1.521324  
      14B1g    1.523573    21Ag     1.555363    16B3u    1.560412  
       6B2g    1.561727     9B1u    1.561751     6Au     1.564140  
       9B3g    1.564178    20B2u    1.573455    15B1g    1.579632  
      21B2u    1.665384    22Ag     1.666329    16B1g    1.677501  
      17B3u    1.693817    22B2u    1.707189    17B1g    1.728274  
      23Ag     1.895093    23B2u    1.900714    24Ag     1.935489  
      18B3u    1.936673    18B1g    1.948483    24B2u    1.953443  

    Final Occupation by Irrep:
             Ag   B1g   B2g   B3g    Au   B1u   B2u   B3u 
    DOCC [     6,    3,    1,    0,    0,    1,    6,    4 ]

  Energy converged.

  @DF-RHF Final Energy:  -228.36379317314308

   => Energetics <=

    Nuclear Repulsion Energy =            108.2403614843735511
    One-Electron Energy =                -519.6978457095041222
    Two-Electron Energy =                 183.0936910519874914
    DFT Exchange-Correlation Energy =       0.0000000000000000
    Empirical Dispersion Energy =           0.0000000000000000
    PCM Polarization Energy =               0.0000000000000000
    EFP Energy =                            0.0000000000000000
    Total Energy =                       -228.3637931731430513


  Saving occupied orbitals to File 180.

*** tstop() called on Ruhees-MacBook-Pro.local at Sun Apr  2 12:11:59 2017
Module time:
	user time   =       6.87 seconds =       0.11 minutes
	system time =       0.25 seconds =       0.00 minutes
	total time  =          6 seconds =       0.10 minutes
Total time:
	user time   =      64.67 seconds =       1.08 minutes
	system time =       1.46 seconds =       0.02 minutes
	total time  =         62 seconds =       1.03 minutes


Properties will be evaluated at   0.000000,   0.000000,   0.000000 Bohr

Properties computed using the SCF density matrix

  Nuclear Dipole Moment: (a.u.)
     X:    -0.0000      Y:     0.0000      Z:     0.0000

  Electronic Dipole Moment: (a.u.)
     X:     0.0000      Y:     0.0000      Z:     0.0000

  Dipole Moment: (a.u.)
     X:    -0.0000      Y:     0.0000      Z:     0.0000     Total:     0.0000

  Dipole Moment: (Debye)
     X:    -0.0000      Y:     0.0000      Z:     0.0000     Total:     0.0000


*** tstart() called on Ruhees-MacBook-Pro.local
*** at Sun Apr  2 12:11:59 2017


         ------------------------------------------------------------
                                   SCF GRAD                          
                          Rob Parrish, Justin Turney,                
                       Andy Simmonett, and Alex Sokolov              
         ------------------------------------------------------------

  ==> Geometry <==

    Molecular point group: d2h
    Full point group: D2h

    Geometry (in Angstrom), charge = 0, multiplicity = 1:

       Center              X                  Y                   Z               Mass       
    ------------   -----------------  -----------------  -----------------  -----------------
           C         -0.000000000000     2.620659420000     0.000000000000    12.000000000000
           C         -2.269175729245     1.310329710000     0.000000000000    12.000000000000
           C         -2.269175729245    -1.310329710000     0.000000000000    12.000000000000
           C          0.000000000000    -2.620659420000     0.000000000000    12.000000000000
           C          2.269175729245    -1.310329710000     0.000000000000    12.000000000000
           C          2.269175729245     1.310329710000     0.000000000000    12.000000000000
           H         -4.041306510000     2.333249400000     0.000000000000     1.007825032070
           H         -4.041306510000    -2.333249400000     0.000000000000     1.007825032070
           H          0.000000000000    -4.666498800000     0.000000000000     1.007825032070
           H          4.041306510000    -2.333249400000     0.000000000000     1.007825032070
           H          4.041306510000     2.333249400000     0.000000000000     1.007825032070
           H         -0.000000000000     4.666498800000     0.000000000000     1.007825032070

  Nuclear repulsion =  108.240361484373551

  ==> Basis Set <==

  Basis Set: CC-PVDZ
    Number of shells: 54
    Number of basis function: 114
    Number of Cartesian functions: 120
    Spherical Harmonics?: true
    Max angular momentum: 2

  ==> DFJKGrad: Density-Fitted SCF Gradients <==

    Gradient:                    1
    J tasked:                  Yes
    K tasked:                  Yes
    wK tasked:                  No
    OpenMP threads:              1
    Integrals threads:           1
    Memory (MB):               178
    Schwarz Cutoff:          0E+00
    Fitting Condition:       1E-12

   => Auxiliary Basis Set <=

  Basis Set: 
    Number of shells: 198
    Number of basis function: 558
    Number of Cartesian functions: 636
    Spherical Harmonics?: true
    Max angular momentum: 3


  -Total Gradient:
     Atom            X                  Y                   Z
    ------   -----------------  -----------------  -----------------
       1        0.000000000000    -0.048770519384     0.000000000000
       2        0.045382130058     0.003585618343     0.000000000000
       3        0.045382130058    -0.003585618343     0.000000000000
       4       -0.000000000000     0.048770519384     0.000000000000
       5       -0.045382130058    -0.003585618343     0.000000000000
       6       -0.045382130058     0.003585618343     0.000000000000
       7       -0.063979069909     0.037277632676     0.000000000000
       8       -0.063979069909    -0.037277632676     0.000000000000
       9        0.000000000000    -0.079125501573     0.000000000000
      10        0.063979069909    -0.037277632676     0.000000000000
      11        0.063979069909     0.037277632676     0.000000000000
      12       -0.000000000000     0.079125501573     0.000000000000


*** tstop() called on Ruhees-MacBook-Pro.local at Sun Apr  2 12:12:10 2017
Module time:
	user time   =      11.27 seconds =       0.19 minutes
	system time =       0.11 seconds =       0.00 minutes
	total time  =         11 seconds =       0.18 minutes
Total time:
	user time   =      75.98 seconds =       1.27 minutes
	system time =       1.57 seconds =       0.03 minutes
	total time  =         73 seconds =       1.22 minutes

  //>>>>>>>>>>>>>>>>>>>>>>>>>>>>>>>>>>>//
  //    Loading displacement 5 of 37   //
  //<<<<<<<<<<<<<<<<<<<<<<<<<<<<<<<<<<<//
gradient() will perform analytic gradient computation.

*** tstart() called on Ruhees-MacBook-Pro.local
*** at Sun Apr  2 12:12:11 2017


         ---------------------------------------------------------
                                   SCF
            by Justin Turney, Rob Parrish, and Andy Simmonett
                              RHF Reference
                        1 Threads,    250 MiB Core
         ---------------------------------------------------------

  ==> Geometry <==

    Molecular point group: d2h
    Full point group: D2h

    Geometry (in Angstrom), charge = 0, multiplicity = 1:

       Center              X                  Y                   Z               Mass       
    ------------   -----------------  -----------------  -----------------  -----------------
           C         -0.000000000000     2.620659420000     0.000000000000    12.000000000000
           C         -2.269557630000     1.309947809245     0.000000000000    12.000000000000
           C         -2.269557630000    -1.309947809245     0.000000000000    12.000000000000
           C          0.000000000000    -2.620659420000     0.000000000000    12.000000000000
           C          2.269557630000    -1.309947809245     0.000000000000    12.000000000000
           C          2.269557630000     1.309947809245     0.000000000000    12.000000000000
           H         -4.041306510000     2.333249400000     0.000000000000     1.007825032070
           H         -4.041306510000    -2.333249400000     0.000000000000     1.007825032070
           H          0.000000000000    -4.666498800000     0.000000000000     1.007825032070
           H          4.041306510000    -2.333249400000     0.000000000000     1.007825032070
           H          4.041306510000     2.333249400000     0.000000000000     1.007825032070
           H         -0.000000000000     4.666498800000     0.000000000000     1.007825032070

  Running in d2h symmetry.

  Rotational constants: A =      0.05385  B =      0.05384  C =      0.02692 [cm^-1]
  Rotational constants: A =   1614.45090  B =   1614.20322  C =    807.16353 [MHz]
  Nuclear repulsion =  108.237835768239890

  Charge       = 0
  Multiplicity = 1
  Electrons    = 42
  Nalpha       = 21
  Nbeta        = 21

  ==> Algorithm <==

  SCF Algorithm Type is DF.
  DIIS enabled.
  MOM disabled.
  Fractional occupation disabled.
  Guess Type is SAD.
  Energy threshold   = 1.00e-08
  Density threshold  = 1.00e-08
  Integral threshold = 0.00e+00

  ==> Primary Basis <==

  Basis Set: CC-PVDZ
    Number of shells: 54
    Number of basis function: 114
    Number of Cartesian functions: 120
    Spherical Harmonics?: true
    Max angular momentum: 2

  ==> Pre-Iterations <==

   -------------------------------------------------------
    Irrep   Nso     Nmo     Nalpha   Nbeta   Ndocc  Nsocc
   -------------------------------------------------------
     Ag        24      24       0       0       0       0
     B1g       18      18       0       0       0       0
     B2g        6       6       0       0       0       0
     B3g        9       9       0       0       0       0
     Au         6       6       0       0       0       0
     B1u        9       9       0       0       0       0
     B2u       24      24       0       0       0       0
     B3u       18      18       0       0       0       0
   -------------------------------------------------------
    Total     114     114      21      21      21       0
   -------------------------------------------------------

  ==> Integral Setup <==

  ==> DFJK: Density-Fitted J/K Matrices <==

    J tasked:                  Yes
    K tasked:                  Yes
    wK tasked:                  No
    OpenMP threads:              1
    Integrals threads:           1
    Memory (MB):               178
    Algorithm:                Core
    Integral Cache:           NONE
    Schwarz Cutoff:          1E-12
    Fitting Condition:       1E-12

   => Auxiliary Basis Set <=

  Basis Set: 
    Number of shells: 198
    Number of basis function: 558
    Number of Cartesian functions: 636
    Spherical Harmonics?: true
    Max angular momentum: 3

  Minimum eigenvalue in the overlap matrix is 7.3355179999E-02.
  Using Symmetric Orthogonalization.
  SCF Guess: Superposition of Atomic Densities via on-the-fly atomic UHF.

  ==> Iterations <==

                           Total Energy        Delta E     RMS |[F,P]|

   @DF-RHF iter   0:  -226.63512602907213   -2.26635e+02   9.81273e-03 
   @DF-RHF iter   1:  -227.89709646165915   -1.26197e+00   1.12683e-02 
   @DF-RHF iter   2:  -228.05266177384755   -1.55565e-01   1.22152e-02 DIIS
   @DF-RHF iter   3:  -228.32144812753552   -2.68786e-01   2.75710e-03 DIIS
   @DF-RHF iter   4:  -228.34255520257801   -2.11071e-02   1.46730e-03 DIIS
   @DF-RHF iter   5:  -228.35605477966720   -1.34996e-02   7.75868e-04 DIIS
   @DF-RHF iter   6:  -228.36252896983552   -6.47419e-03   2.82669e-04 DIIS
   @DF-RHF iter   7:  -228.36367734023969   -1.14837e-03   1.25259e-04 DIIS
   @DF-RHF iter   8:  -228.36392085129364   -2.43511e-04   3.38544e-05 DIIS
   @DF-RHF iter   9:  -228.36393384503549   -1.29937e-05   8.76182e-06 DIIS
   @DF-RHF iter  10:  -228.36393442888755   -5.83852e-07   3.00860e-06 DIIS
   @DF-RHF iter  11:  -228.36393453110151   -1.02214e-07   1.47624e-06 DIIS
   @DF-RHF iter  12:  -228.36393455703342   -2.59319e-08   5.08534e-07 DIIS
   @DF-RHF iter  13:  -228.36393456131321   -4.27980e-09   1.87586e-07 DIIS
   @DF-RHF iter  14:  -228.36393456150091   -1.87697e-10   6.23188e-08 DIIS
   @DF-RHF iter  15:  -228.36393456154309   -4.21778e-11   2.31930e-08 DIIS
   @DF-RHF iter  16:  -228.36393456154934   -6.25278e-12   9.19489e-09 DIIS

  ==> Post-Iterations <==

    Orbital Energies (a.u.)
    -----------------------

    Doubly Occupied:                                                      

       1Ag   -11.517377     1B2u  -11.517375     1B3u  -11.465746  
       2Ag   -11.465744     1B1g  -11.465694     2B2u  -11.465692  
       3Ag    -0.842258     3B2u   -0.830802     2B3u   -0.798770  
       4Ag    -0.768779     2B1g   -0.742593     4B2u   -0.719576  
       5Ag    -0.425092     5B2u   -0.420511     3B3u   -0.384994  
       6Ag    -0.370291     3B1g   -0.364929     6B2u   -0.329214  
       4B3u   -0.298347     1B1u   -0.284319     1B2g   -0.277117  

    Virtual:                                                              

       4B1g   -0.143631     1B3g   -0.074929     1Au    -0.053614  
       7Ag    -0.052780     2B1u   -0.012758     8Ag    -0.009164  
       7B2u   -0.008984     2B3g    0.002959     5B3u    0.011403  
       9Ag     0.050874     6B3u    0.051661     5B1g    0.072749  
       8B2u    0.073427     9B2u    0.092559     6B1g    0.125793  
       3B1u    0.604602    10Ag     0.606314    10B2u    0.619753  
       3B3g    0.621287     2B2g    0.639435    11Ag     0.642239  
       7B3u    0.643616    11B2u    0.654048     7B1g    0.660868  
      12B2u    0.666345     8B3u    0.669327    12Ag     0.675206  
       8B1g    0.686285     4B1u    0.694387    13Ag     0.695678  
       2Au     0.710477    14Ag     0.720106    13B2u    0.721543  
       9B3u    0.739885    10B3u    0.753617     4B3g    0.769735  
      14B2u    0.854126    15Ag     0.859957     9B1g    0.862974  
      10B1g    0.873433    11B3u    0.906445    15B2u    0.909593  
      16Ag     0.916769    11B1g    0.937671    16B2u    1.134065  
      17Ag     1.190338    12B3u    1.197299    17B2u    1.229947  
      18Ag     1.243095    13B3u    1.252999    18B2u    1.270196  
      12B1g    1.275435     3B2g    1.278664     5B1u    1.283989  
      19Ag     1.287623     5B3g    1.289172    14B3u    1.291765  
       3Au     1.298591     6B1u    1.318229    20Ag     1.319418  
       4B2g    1.320390    13B1g    1.328229    19B2u    1.367561  
       6B3g    1.390958     4Au     1.394509     7B1u    1.394531  
       5B2g    1.402584     7B3g    1.429089     5Au     1.431742  
       8B1u    1.519082     8B3g    1.519102    15B3u    1.521311  
      14B1g    1.523561    21Ag     1.555386    16B3u    1.560416  
       6B2g    1.561765     9B1u    1.561789     6Au     1.564186  
       9B3g    1.564224    20B2u    1.573523    15B1g    1.579679  
      21B2u    1.665139    22Ag     1.665978    16B1g    1.677583  
      17B3u    1.693473    22B2u    1.707604    17B1g    1.728373  
      23Ag     1.895084    23B2u    1.900702    24Ag     1.935596  
      18B3u    1.936789    18B1g    1.948600    24B2u    1.953553  

    Final Occupation by Irrep:
             Ag   B1g   B2g   B3g    Au   B1u   B2u   B3u 
    DOCC [     6,    3,    1,    0,    0,    1,    6,    4 ]

  Energy converged.

  @DF-RHF Final Energy:  -228.36393456154934

   => Energetics <=

    Nuclear Repulsion Energy =            108.2378357682398899
    One-Electron Energy =                -519.6930982899123137
    Two-Electron Energy =                 183.0913279601230670
    DFT Exchange-Correlation Energy =       0.0000000000000000
    Empirical Dispersion Energy =           0.0000000000000000
    PCM Polarization Energy =               0.0000000000000000
    EFP Energy =                            0.0000000000000000
    Total Energy =                       -228.3639345615493426


  Saving occupied orbitals to File 180.

*** tstop() called on Ruhees-MacBook-Pro.local at Sun Apr  2 12:12:17 2017
Module time:
	user time   =       6.72 seconds =       0.11 minutes
	system time =       0.25 seconds =       0.00 minutes
	total time  =          6 seconds =       0.10 minutes
Total time:
	user time   =      83.06 seconds =       1.38 minutes
	system time =       1.83 seconds =       0.03 minutes
	total time  =         80 seconds =       1.33 minutes


Properties will be evaluated at   0.000000,   0.000000,   0.000000 Bohr

Properties computed using the SCF density matrix

  Nuclear Dipole Moment: (a.u.)
     X:    -0.0000      Y:     0.0000      Z:     0.0000

  Electronic Dipole Moment: (a.u.)
     X:     0.0000      Y:     0.0000      Z:     0.0000

  Dipole Moment: (a.u.)
     X:    -0.0000      Y:     0.0000      Z:     0.0000     Total:     0.0000

  Dipole Moment: (Debye)
     X:    -0.0000      Y:     0.0000      Z:     0.0000     Total:     0.0000


*** tstart() called on Ruhees-MacBook-Pro.local
*** at Sun Apr  2 12:12:17 2017


         ------------------------------------------------------------
                                   SCF GRAD                          
                          Rob Parrish, Justin Turney,                
                       Andy Simmonett, and Alex Sokolov              
         ------------------------------------------------------------

  ==> Geometry <==

    Molecular point group: d2h
    Full point group: D2h

    Geometry (in Angstrom), charge = 0, multiplicity = 1:

       Center              X                  Y                   Z               Mass       
    ------------   -----------------  -----------------  -----------------  -----------------
           C         -0.000000000000     2.620659420000     0.000000000000    12.000000000000
           C         -2.269557630000     1.309947809245     0.000000000000    12.000000000000
           C         -2.269557630000    -1.309947809245     0.000000000000    12.000000000000
           C          0.000000000000    -2.620659420000     0.000000000000    12.000000000000
           C          2.269557630000    -1.309947809245     0.000000000000    12.000000000000
           C          2.269557630000     1.309947809245     0.000000000000    12.000000000000
           H         -4.041306510000     2.333249400000     0.000000000000     1.007825032070
           H         -4.041306510000    -2.333249400000     0.000000000000     1.007825032070
           H          0.000000000000    -4.666498800000     0.000000000000     1.007825032070
           H          4.041306510000    -2.333249400000     0.000000000000     1.007825032070
           H          4.041306510000     2.333249400000     0.000000000000     1.007825032070
           H         -0.000000000000     4.666498800000     0.000000000000     1.007825032070

  Nuclear repulsion =  108.237835768239890

  ==> Basis Set <==

  Basis Set: CC-PVDZ
    Number of shells: 54
    Number of basis function: 114
    Number of Cartesian functions: 120
    Spherical Harmonics?: true
    Max angular momentum: 2

  ==> DFJKGrad: Density-Fitted SCF Gradients <==

    Gradient:                    1
    J tasked:                  Yes
    K tasked:                  Yes
    wK tasked:                  No
    OpenMP threads:              1
    Integrals threads:           1
    Memory (MB):               178
    Schwarz Cutoff:          0E+00
    Fitting Condition:       1E-12

   => Auxiliary Basis Set <=

  Basis Set: 
    Number of shells: 198
    Number of basis function: 558
    Number of Cartesian functions: 636
    Spherical Harmonics?: true
    Max angular momentum: 3


  -Total Gradient:
     Atom            X                  Y                   Z
    ------   -----------------  -----------------  -----------------
       1        0.000000000000    -0.048782635164     0.000000000000
       2        0.045390207007     0.003598821597     0.000000000000
       3        0.045390207007    -0.003598821597     0.000000000000
       4       -0.000000000000     0.048782635164     0.000000000000
       5       -0.045390207007    -0.003598821597     0.000000000000
       6       -0.045390207007     0.003598821597     0.000000000000
       7       -0.063974240134     0.037301439597     0.000000000000
       8       -0.063974240134    -0.037301439597     0.000000000000
       9        0.000000000000    -0.079129905553     0.000000000000
      10        0.063974240134    -0.037301439597     0.000000000000
      11        0.063974240134     0.037301439597     0.000000000000
      12       -0.000000000000     0.079129905553     0.000000000000


*** tstop() called on Ruhees-MacBook-Pro.local at Sun Apr  2 12:12:28 2017
Module time:
	user time   =      11.41 seconds =       0.19 minutes
	system time =       0.12 seconds =       0.00 minutes
	total time  =         11 seconds =       0.18 minutes
Total time:
	user time   =      94.52 seconds =       1.58 minutes
	system time =       1.96 seconds =       0.03 minutes
	total time  =         91 seconds =       1.52 minutes

  //>>>>>>>>>>>>>>>>>>>>>>>>>>>>>>>>>>>//
  //    Loading displacement 6 of 37   //
  //<<<<<<<<<<<<<<<<<<<<<<<<<<<<<<<<<<<//
gradient() will perform analytic gradient computation.

*** tstart() called on Ruhees-MacBook-Pro.local
*** at Sun Apr  2 12:12:29 2017


         ---------------------------------------------------------
                                   SCF
            by Justin Turney, Rob Parrish, and Andy Simmonett
                              RHF Reference
                        1 Threads,    250 MiB Core
         ---------------------------------------------------------

  ==> Geometry <==

    Molecular point group: d2h
    Full point group: D2h

    Geometry (in Angstrom), charge = 0, multiplicity = 1:

       Center              X                  Y                   Z               Mass       
    ------------   -----------------  -----------------  -----------------  -----------------
           C         -0.000000000000     2.620659420000     0.000000000000    12.000000000000
           C         -2.269557630000     1.310711610755     0.000000000000    12.000000000000
           C         -2.269557630000    -1.310711610755     0.000000000000    12.000000000000
           C          0.000000000000    -2.620659420000     0.000000000000    12.000000000000
           C          2.269557630000    -1.310711610755     0.000000000000    12.000000000000
           C          2.269557630000     1.310711610755     0.000000000000    12.000000000000
           H         -4.041306510000     2.333249400000     0.000000000000     1.007825032070
           H         -4.041306510000    -2.333249400000     0.000000000000     1.007825032070
           H          0.000000000000    -4.666498800000     0.000000000000     1.007825032070
           H          4.041306510000    -2.333249400000     0.000000000000     1.007825032070
           H          4.041306510000     2.333249400000     0.000000000000     1.007825032070
           H         -0.000000000000     4.666498800000     0.000000000000     1.007825032070

  Running in d2h symmetry.

  Rotational constants: A =      0.05384  B =      0.05384  C =      0.02692 [cm^-1]
  Rotational constants: A =   1614.20322  B =   1613.95553  C =    807.03968 [MHz]
  Nuclear repulsion =  108.230934340955756

  Charge       = 0
  Multiplicity = 1
  Electrons    = 42
  Nalpha       = 21
  Nbeta        = 21

  ==> Algorithm <==

  SCF Algorithm Type is DF.
  DIIS enabled.
  MOM disabled.
  Fractional occupation disabled.
  Guess Type is SAD.
  Energy threshold   = 1.00e-08
  Density threshold  = 1.00e-08
  Integral threshold = 0.00e+00

  ==> Primary Basis <==

  Basis Set: CC-PVDZ
    Number of shells: 54
    Number of basis function: 114
    Number of Cartesian functions: 120
    Spherical Harmonics?: true
    Max angular momentum: 2

  ==> Pre-Iterations <==

   -------------------------------------------------------
    Irrep   Nso     Nmo     Nalpha   Nbeta   Ndocc  Nsocc
   -------------------------------------------------------
     Ag        24      24       0       0       0       0
     B1g       18      18       0       0       0       0
     B2g        6       6       0       0       0       0
     B3g        9       9       0       0       0       0
     Au         6       6       0       0       0       0
     B1u        9       9       0       0       0       0
     B2u       24      24       0       0       0       0
     B3u       18      18       0       0       0       0
   -------------------------------------------------------
    Total     114     114      21      21      21       0
   -------------------------------------------------------

  ==> Integral Setup <==

  ==> DFJK: Density-Fitted J/K Matrices <==

    J tasked:                  Yes
    K tasked:                  Yes
    wK tasked:                  No
    OpenMP threads:              1
    Integrals threads:           1
    Memory (MB):               178
    Algorithm:                Core
    Integral Cache:           NONE
[...]
   14    -0.00462996575716     0.00000000000000     0.02160376166253    -0.01316499212965     0.00000000000000
   15     0.00000000000000    -0.03783760430925     0.00000000000000     0.00000000000000     0.09405104554051
   16     0.00083771719614     0.00000000000000    -0.04150878816259     0.00997395994849     0.00000000000000
   17     0.00234197161744     0.00000000000000    -0.00997395994849     0.03044881816547     0.00000000000000
   18     0.00000000000000    -0.01837055628630     0.00000000000000     0.00000000000000    -0.01458141165486
   19    -0.00028445559298     0.00000000000000     0.00637851325648    -0.00104603805691     0.00000000000000
   20     0.00085040044210     0.00000000000000     0.00119251168920     0.00068289128031     0.00000000000000
   21     0.00000000000000     0.00991623988647     0.00000000000000     0.00000000000000    -0.00207507022021
   22     0.00083409564507     0.00000000000000     0.00329724356408    -0.00130238277364     0.00000000000000
   23     0.00247210415346     0.00000000000000    -0.00237010589828     0.00060370230759     0.00000000000000
   24     0.00000000000000     0.01122083798853     0.00000000000000     0.00000000000000    -0.00566314841065
   25     0.00000000000000     0.00000000000000     0.01483887092453    -0.00398906865521     0.00000000000000
   26     0.02869826776759     0.00000000000000    -0.00175314146133    -0.00152519148214     0.00000000000000
   27     0.00000000000000    -0.02871759999139     0.00000000000000     0.00000000000000     0.00256515479458
   28    -0.00083409564507     0.00000000000000     0.02180419528707    -0.02468940236731     0.00000000000000
   29     0.00247210415346     0.00000000000000    -0.02082615581581    -0.01148014164513     0.00000000000000
   30     0.00000000000000     0.01122083798853     0.00000000000000     0.00000000000000    -0.04021212211206
   31     0.00028445559298     0.00000000000000     0.00480716746318    -0.00128661964848     0.00000000000000
   32     0.00085040044210     0.00000000000000    -0.00236029812460    -0.00058936456773     0.00000000000000
   33     0.00000000000000     0.00991623988647     0.00000000000000     0.00000000000000    -0.00173429231025
   34     0.00000000000000     0.00000000000000     0.01208652130155    -0.00232658191466     0.00000000000000
   35     0.00041700663345     0.00000000000000    -0.00029180274191     0.00006369667432     0.00000000000000
   36     0.00000000000000    -0.00199943952254     0.00000000000000     0.00000000000000     0.00530147702027

                16                  17                  18                  19                  20

    1     0.04699912654717    -0.00698246436756     0.00000000000000    -0.01052325121759    -0.00285504037275
    2    -0.01452261144176    -0.00462996575716     0.00000000000000    -0.00083409564507     0.00247210415346
    3     0.00000000000000     0.00000000000000    -0.03783760430925     0.00000000000000     0.00000000000000
    4    -0.02907142742903    -0.00500273370199     0.00000000000000     0.02180419528707    -0.02082615581581
    5     0.00500273370199     0.00106909766618     0.00000000000000    -0.02468940236731    -0.01148014164513
    6     0.00000000000000     0.00000000000000     0.01675404104914     0.00000000000000     0.00000000000000
    7    -0.02824030072159    -0.00609703009506     0.00000000000000     0.00480716746318     0.00236029812460
    8    -0.00609703009506    -0.00382052212952     0.00000000000000     0.00128661964848    -0.00058936456773
    9     0.00000000000000     0.00000000000000     0.00180248689908     0.00000000000000     0.00000000000000
   10     0.03607816776875     0.01501985635944     0.00000000000000    -0.00368838334227    -0.00165440141569
   11     0.00083771719614     0.00234197161744     0.00000000000000    -0.00028445559298     0.00085040044210
   12     0.00000000000000     0.00000000000000    -0.01837055628630     0.00000000000000     0.00000000000000
   13    -0.04150878816259    -0.00997395994849     0.00000000000000     0.00637851325648     0.00119251168920
   14     0.00997395994849     0.03044881816547     0.00000000000000    -0.00104603805691     0.00068289128031
   15     0.00000000000000     0.00000000000000    -0.01458141165486     0.00000000000000     0.00000000000000
   16    -0.04746928979959    -0.02160376166253     0.00000000000000     0.00329724356408     0.00237010589828
   17    -0.02160376166253    -0.01316499212965     0.00000000000000     0.00130238277364     0.00060370230759
   18     0.00000000000000     0.00000000000000     0.09405104554051     0.00000000000000     0.00000000000000
   19     0.00329724356408     0.00130238277364     0.00000000000000    -0.01062023557370     0.01878664312205
   20     0.00237010589828     0.00060370230759     0.00000000000000     0.01878664312205     0.00968881215594
   21     0.00000000000000     0.00000000000000    -0.00566314841065     0.00000000000000     0.00000000000000
   22     0.00637851325648     0.00104603805691     0.00000000000000    -0.00559131380921     0.00240808178766
   23    -0.00119251168920     0.00068289128031     0.00000000000000    -0.00240808178766     0.00024768416113
   24     0.00000000000000     0.00000000000000    -0.00207507022021     0.00000000000000     0.00000000000000
   25     0.01208652130155     0.00232658191466     0.00000000000000    -0.00248411611991     0.00049529567945
   26     0.00029180274191     0.00006369667432     0.00000000000000     0.00053473120255    -0.00021442268815
   27     0.00000000000000     0.00000000000000     0.00530147702027     0.00000000000000     0.00000000000000
   28     0.00480716746318     0.00128661964848     0.00000000000000    -0.00585662513189     0.00325483970793
   29     0.00236029812460    -0.00058936456773     0.00000000000000     0.00325483970793    -0.00154603111550
   30     0.00000000000000     0.00000000000000    -0.00173429231025     0.00000000000000     0.00000000000000
   31     0.02180419528707     0.02468940236731     0.00000000000000     0.00411531730243    -0.00374703353331
   32     0.02082615581581    -0.01148014164513     0.00000000000000     0.00374703353331    -0.00115231921745
   33     0.00000000000000     0.00000000000000    -0.04021212211206     0.00000000000000     0.00000000000000
   34     0.01483887092453     0.00398906865521     0.00000000000000    -0.00163851167866    -0.00178514487163
   35     0.00175314146133    -0.00152519148214     0.00000000000000     0.00034982346196     0.00043668473342
   36     0.00000000000000     0.00000000000000     0.00256515479458     0.00000000000000     0.00000000000000

                21                  22                  23                  24                  25

    1     0.00000000000000    -0.00368838334227     0.00165440141569     0.00000000000000    -0.01272611625610
    2     0.00000000000000     0.00028445559298     0.00085040044210     0.00000000000000     0.00000000000000
    3     0.01122083798853     0.00000000000000     0.00000000000000     0.00991623988647     0.00000000000000
    4     0.00000000000000     0.00480716746318    -0.00236029812460     0.00000000000000     0.01208652130155
    5     0.00000000000000    -0.00128661964848    -0.00058936456773     0.00000000000000    -0.00232658191466
    6    -0.04021212211206     0.00000000000000     0.00000000000000    -0.00173429231025     0.00000000000000
    7     0.00000000000000     0.02180419528707     0.02082615581581     0.00000000000000     0.01483887092453
    8     0.00000000000000     0.02468940236731    -0.01148014164513     0.00000000000000     0.00398906865521
    9    -0.00173429231025     0.00000000000000     0.00000000000000    -0.04021212211206     0.00000000000000
   10     0.00000000000000    -0.01052325121759     0.00285504037275     0.00000000000000    -0.04715796682853
   11     0.00000000000000     0.00083409564507     0.00247210415346     0.00000000000000     0.00000000000000
   12     0.00991623988647     0.00000000000000     0.00000000000000     0.01122083798853     0.00000000000000
   13     0.00000000000000     0.00329724356408    -0.00237010589828     0.00000000000000     0.01483887092453
   14     0.00000000000000    -0.00130238277364     0.00060370230759     0.00000000000000    -0.00398906865521
   15    -0.00207507022021     0.00000000000000     0.00000000000000    -0.00566314841065     0.00000000000000
   16     0.00000000000000     0.00637851325648    -0.00119251168920     0.00000000000000     0.01208652130155
   17     0.00000000000000     0.00104603805691     0.00068289128031     0.00000000000000     0.00232658191466
   18    -0.00566314841065     0.00000000000000     0.00000000000000    -0.00207507022021     0.00000000000000
   19     0.00000000000000    -0.00559131380921    -0.00240808178766     0.00000000000000    -0.00248411611991
   20     0.00000000000000     0.00240808178766     0.00024768416113     0.00000000000000     0.00049529567945
   21     0.02522977061323     0.00000000000000     0.00000000000000     0.00032998399547     0.00000000000000
   22     0.00000000000000    -0.01062023557370    -0.01878664312205     0.00000000000000    -0.00163851167866
   23     0.00000000000000    -0.01878664312205     0.00968881215594     0.00000000000000     0.00178514487163
   24     0.00032998399547     0.00000000000000     0.00000000000000     0.02522977061323     0.00000000000000
   25     0.00000000000000    -0.00163851167866     0.00178514487163     0.00000000000000     0.01839539357377
   26     0.00000000000000    -0.00034982346196     0.00043668473342     0.00000000000000     0.00000000000000
   27    -0.00106166784967     0.00000000000000     0.00000000000000    -0.00229930291600     0.00000000000000
   28     0.00000000000000     0.00411531730243     0.00374703353331     0.00000000000000    -0.00163851167866
   29     0.00000000000000    -0.00374703353331    -0.00115231921745     0.00000000000000    -0.00178514487163
   30     0.00330739500622     0.00000000000000     0.00000000000000     0.00304137632891     0.00000000000000
   31     0.00000000000000    -0.00585662513189    -0.00325483970793     0.00000000000000    -0.00248411611991
   32     0.00000000000000    -0.00325483970793    -0.00154603111550     0.00000000000000    -0.00049529567945
   33     0.00304137632891     0.00000000000000     0.00000000000000     0.00330739500622     0.00000000000000
   34     0.00000000000000    -0.00248411611991    -0.00049529567945     0.00000000000000    -0.00411683934414
   35     0.00000000000000    -0.00053473120255    -0.00021442268815     0.00000000000000     0.00000000000000
   36    -0.00229930291600     0.00000000000000     0.00000000000000    -0.00106166784967     0.00000000000000

                26                  27                  28                  29                  30

    1     0.00000000000000     0.00000000000000    -0.00368838334227    -0.00165440141569     0.00000000000000
    2     0.00041700663345     0.00000000000000    -0.00028445559298     0.00085040044210     0.00000000000000
    3     0.00000000000000    -0.00199943952254     0.00000000000000     0.00000000000000     0.00991623988647
    4    -0.00029180274191     0.00000000000000     0.00637851325648     0.00119251168920     0.00000000000000
    5     0.00006369667432     0.00000000000000    -0.00104603805691     0.00068289128031     0.00000000000000
    6     0.00000000000000     0.00530147702027     0.00000000000000     0.00000000000000    -0.00207507022021
    7     0.00175314146133     0.00000000000000     0.00329724356408     0.00237010589828     0.00000000000000
    8    -0.00152519148214     0.00000000000000     0.00130238277364     0.00060370230759     0.00000000000000
    9     0.00000000000000     0.00256515479458     0.00000000000000     0.00000000000000    -0.00566314841065
   10     0.00000000000000     0.00000000000000    -0.01052325121759    -0.00285504037275     0.00000000000000
   11     0.02869826776759     0.00000000000000    -0.00083409564507     0.00247210415346     0.00000000000000
   12     0.00000000000000    -0.02871759999139     0.00000000000000     0.00000000000000     0.01122083798853
   13    -0.00175314146133     0.00000000000000     0.02180419528707    -0.02082615581581     0.00000000000000
   14    -0.00152519148214     0.00000000000000    -0.02468940236731    -0.01148014164513     0.00000000000000
   15     0.00000000000000     0.00256515479458     0.00000000000000     0.00000000000000    -0.04021212211206
   16     0.00029180274191     0.00000000000000     0.00480716746318     0.00236029812460     0.00000000000000
   17     0.00006369667432     0.00000000000000     0.00128661964848    -0.00058936456773     0.00000000000000
   18     0.00000000000000     0.00530147702027     0.00000000000000     0.00000000000000    -0.00173429231025
   19     0.00053473120255     0.00000000000000    -0.00585662513189     0.00325483970793     0.00000000000000
   20    -0.00021442268815     0.00000000000000     0.00325483970793    -0.00154603111550     0.00000000000000
   21     0.00000000000000    -0.00106166784967     0.00000000000000     0.00000000000000     0.00330739500622
   22    -0.00034982346196     0.00000000000000     0.00411531730243    -0.00374703353331     0.00000000000000
   23     0.00043668473342     0.00000000000000     0.00374703353331    -0.00115231921745     0.00000000000000
   24     0.00000000000000    -0.00229930291600     0.00000000000000     0.00000000000000     0.00304137632891
   25     0.00000000000000     0.00000000000000    -0.00163851167866    -0.00178514487163     0.00000000000000
   26    -0.02651544382423     0.00000000000000     0.00034982346196     0.00043668473342     0.00000000000000
   27     0.00000000000000     0.01974234884186     0.00000000000000     0.00000000000000    -0.00229930291600
   28     0.00034982346196     0.00000000000000    -0.01062023557370     0.01878664312205     0.00000000000000
   29     0.00043668473342     0.00000000000000     0.01878664312205     0.00968881215594     0.00000000000000
   30     0.00000000000000    -0.00229930291600     0.00000000000000     0.00000000000000     0.02522977061323
   31    -0.00053473120255     0.00000000000000    -0.00559131380921     0.00240808178766     0.00000000000000
   32    -0.00021442268815     0.00000000000000    -0.00240808178766     0.00024768416113     0.00000000000000
   33     0.00000000000000    -0.00106166784967     0.00000000000000     0.00000000000000     0.00032998399547
   34     0.00000000000000     0.00000000000000    -0.00248411611991     0.00049529567945     0.00000000000000
   35    -0.00012136505173     0.00000000000000     0.00053473120255    -0.00021442268815     0.00000000000000
   36     0.00000000000000     0.00196336857370     0.00000000000000     0.00000000000000    -0.00106166784967

                31                  32                  33                  34                  35

    1    -0.01052325121759     0.00285504037275     0.00000000000000    -0.04715796682853     0.00000000000000
    2     0.00083409564507     0.00247210415346     0.00000000000000     0.00000000000000     0.02869826776759
    3     0.00000000000000     0.00000000000000     0.01122083798853     0.00000000000000     0.00000000000000
    4     0.00329724356408    -0.00237010589828     0.00000000000000     0.01483887092453    -0.00175314146133
    5    -0.00130238277364     0.00060370230759     0.00000000000000    -0.00398906865521    -0.00152519148214
    6     0.00000000000000     0.00000000000000    -0.00566314841065     0.00000000000000     0.00000000000000
    7     0.00637851325648    -0.00119251168920     0.00000000000000     0.01208652130155     0.00029180274191
    8     0.00104603805691     0.00068289128031     0.00000000000000     0.00232658191466     0.00006369667432
    9     0.00000000000000     0.00000000000000    -0.00207507022021     0.00000000000000     0.00000000000000
   10    -0.00368838334227     0.00165440141569     0.00000000000000    -0.01272611625610     0.00000000000000
   11     0.00028445559298     0.00085040044210     0.00000000000000     0.00000000000000     0.00041700663345
   12     0.00000000000000     0.00000000000000     0.00991623988647     0.00000000000000     0.00000000000000
   13     0.00480716746318    -0.00236029812460     0.00000000000000     0.01208652130155    -0.00029180274191
   14    -0.00128661964848    -0.00058936456773     0.00000000000000    -0.00232658191466     0.00006369667432
   15     0.00000000000000     0.00000000000000    -0.00173429231025     0.00000000000000     0.00000000000000
   16     0.02180419528707     0.02082615581581     0.00000000000000     0.01483887092453     0.00175314146133
   17     0.02468940236731    -0.01148014164513     0.00000000000000     0.00398906865521    -0.00152519148214
   18     0.00000000000000     0.00000000000000    -0.04021212211206     0.00000000000000     0.00000000000000
   19     0.00411531730243     0.00374703353331     0.00000000000000    -0.00163851167866     0.00034982346196
   20    -0.00374703353331    -0.00115231921745     0.00000000000000    -0.00178514487163     0.00043668473342
   21     0.00000000000000     0.00000000000000     0.00304137632891     0.00000000000000     0.00000000000000
   22    -0.00585662513189    -0.00325483970793     0.00000000000000    -0.00248411611991    -0.00053473120255
   23    -0.00325483970793    -0.00154603111550     0.00000000000000    -0.00049529567945    -0.00021442268815
   24     0.00000000000000     0.00000000000000     0.00330739500622     0.00000000000000     0.00000000000000
   25    -0.00248411611991    -0.00049529567945     0.00000000000000    -0.00411683934414     0.00000000000000
   26    -0.00053473120255    -0.00021442268815     0.00000000000000     0.00000000000000    -0.00012136505173
   27     0.00000000000000     0.00000000000000    -0.00106166784967     0.00000000000000     0.00000000000000
   28    -0.00559131380921    -0.00240808178766     0.00000000000000    -0.00248411611991     0.00053473120255
   29     0.00240808178766     0.00024768416113     0.00000000000000     0.00049529567945    -0.00021442268815
   30     0.00000000000000     0.00000000000000     0.00032998399547     0.00000000000000     0.00000000000000
   31    -0.01062023557370    -0.01878664312205     0.00000000000000    -0.00163851167866    -0.00034982346196
   32    -0.01878664312205     0.00968881215594     0.00000000000000     0.00178514487163     0.00043668473342
   33     0.00000000000000     0.00000000000000     0.02522977061323     0.00000000000000     0.00000000000000
   34    -0.00163851167866     0.00178514487163     0.00000000000000     0.01839539357377     0.00000000000000
   35    -0.00034982346196     0.00043668473342     0.00000000000000     0.00000000000000    -0.02651544382423
   36     0.00000000000000     0.00000000000000    -0.00229930291600     0.00000000000000     0.00000000000000

                36

    1     0.00000000000000
    2     0.00000000000000
    3    -0.02871759999139
    4     0.00000000000000
    5     0.00000000000000
    6     0.00256515479458
    7     0.00000000000000
    8     0.00000000000000
    9     0.00530147702027
   10     0.00000000000000
   11     0.00000000000000
   12    -0.00199943952254
   13     0.00000000000000
   14     0.00000000000000
   15     0.00530147702027
   16     0.00000000000000
   17     0.00000000000000
   18     0.00256515479458
   19     0.00000000000000
   20     0.00000000000000
   21    -0.00229930291600
   22     0.00000000000000
   23     0.00000000000000
   24    -0.00106166784967
   25     0.00000000000000
   26     0.00000000000000
   27     0.00196336857370
   28     0.00000000000000
   29     0.00000000000000
   30    -0.00106166784967
   31     0.00000000000000
   32     0.00000000000000
   33    -0.00229930291600
   34     0.00000000000000
   35     0.00000000000000
   36     0.01974234884186




*** Psi4 exiting successfully. Buy a developer a beer!
